#INFO: **** input file is /home/yangjunjie/pyscf/examples/2-benchmark/bz_test.py ****
#!/usr/bin/env python
import os
import time
import re
import numpy
from pyscf import lib
from pyscf import gto, scf, dft, mcscf, mp, cc, lo

from functools import reduce

mol = gto.Mole()
mol.verbose = 5
mol.max_memory = 16000
log = lib.logger.Logger(mol.stdout, 5)
with open('/proc/cpuinfo') as f:
    for line in f:
        if 'model name' in line:
            log.note(line[:-1])
            break
with open('/proc/meminfo') as f:
    log.note(f.readline()[:-1])
log.note('OMP_NUM_THREADS=%s\n', os.environ.get('OMP_NUM_THREADS', None))

for bas in ["cc-pVDZ"]:
# for bas in ('ANO-Roos-TZ',):
    mol.atom = '''
c   1.217739890298750 -0.703062453466927  0.000000000000000
h   2.172991468538160 -1.254577209307266  0.000000000000000
c   1.217739890298750  0.703062453466927  0.000000000000000
h   2.172991468538160  1.254577209307266  0.000000000000000
c   0.000000000000000  1.406124906933854  0.000000000000000
h   0.000000000000000  2.509154418614532  0.000000000000000
c  -1.217739890298750  0.703062453466927  0.000000000000000
h  -2.172991468538160  1.254577209307266  0.000000000000000
c  -1.217739890298750 -0.703062453466927  0.000000000000000
h  -2.172991468538160 -1.254577209307266  0.000000000000000
c   0.000000000000000 -1.406124906933854  0.000000000000000
h   0.000000000000000 -2.509154418614532  0.000000000000000
'''
    mol.basis = bas
    mol.output = 'bz-%s.out' %bas
    mol.build()
    cpu0 = time.clock(), time.time()

    mf = scf.RHF(mol)
    mf.kernel()
    cpu0 = log.timer('C6H6 %s RHF'%bas, *cpu0)

    mymp2 = mp.MP2(mf)
    mymp2.kernel()
    cpu0 = log.timer('C6H6 %s MP2'%bas, *cpu0)

    mf = dft.RKS(mol)
    mf.xc = 'b3lyp'
    mf.kernel()
    cpu0 = log.timer('C6H6 %s B3LYP'%bas, *cpu0)

#INFO: ******************** input file end ********************


System: uname_result(system='Linux', node='schooner2.oscer.ou.edu', release='3.10.0-693.11.6.el7.x86_64', version='#1 SMP Thu Jan 4 01:06:37 UTC 2018', machine='x86_64', processor='x86_64')  Threads 20
Python 3.7.4 (default, Aug 13 2019, 20:35:49) 
[GCC 7.3.0]
numpy 1.17.2  scipy 1.3.1
Date: Wed Jan 29 21:02:57 2020
PySCF version 1.7.0
PySCF path  /home/yangjunjie/pyscf/pyscf
GIT ORIG_HEAD 86ed78fa24eb9d79425083300acc19d12337f63e
GIT HEAD      ref: refs/heads/master
GIT master branch  6fc7c8a4a47fb7f6650945d54633a544a48f16c0

[ENV] PYSCF_WORK /home/yangjunjie/work/pyscf/pyscf/lib/compile-oscer.sh
[ENV] PYSCF_HOME /home/yangjunjie/pyscf/pyscf/lib/compile-oscer.sh
[CONFIG] conf_file None
[INPUT] verbose = 5
[INPUT] max_memory = 16000 
[INPUT] num. atoms = 12
[INPUT] num. electrons = 42
[INPUT] charge = 0
[INPUT] spin (= nelec alpha-beta = 2S) = 0
[INPUT] symmetry False subgroup None
[INPUT] Mole.unit = angstrom
[INPUT]  1 C      1.217739890299  -0.703062453467   0.000000000000 AA    2.301194883623  -1.328595485517   0.000000000000 Bohr
[INPUT]  2 H      2.172991468538  -1.254577209307   0.000000000000 AA    4.106358746554  -2.370807327712   0.000000000000 Bohr
[INPUT]  3 C      1.217739890299   0.703062453467   0.000000000000 AA    2.301194883623   1.328595485517   0.000000000000 Bohr
[INPUT]  4 H      2.172991468538   1.254577209307   0.000000000000 AA    4.106358746554   2.370807327712   0.000000000000 Bohr
[INPUT]  5 C      0.000000000000   1.406124906934   0.000000000000 AA    0.000000000000   2.657190971035   0.000000000000 Bohr
[INPUT]  6 H      0.000000000000   2.509154418615   0.000000000000 AA    0.000000000000   4.741614655424   0.000000000000 Bohr
[INPUT]  7 C     -1.217739890299   0.703062453467   0.000000000000 AA   -2.301194883623   1.328595485517   0.000000000000 Bohr
[INPUT]  8 H     -2.172991468538   1.254577209307   0.000000000000 AA   -4.106358746554   2.370807327712   0.000000000000 Bohr
[INPUT]  9 C     -1.217739890299  -0.703062453467   0.000000000000 AA   -2.301194883623  -1.328595485517   0.000000000000 Bohr
[INPUT] 10 H     -2.172991468538  -1.254577209307   0.000000000000 AA   -4.106358746554  -2.370807327712   0.000000000000 Bohr
[INPUT] 11 C      0.000000000000  -1.406124906934   0.000000000000 AA    0.000000000000  -2.657190971035   0.000000000000 Bohr
[INPUT] 12 H      0.000000000000  -2.509154418615   0.000000000000 AA    0.000000000000  -4.741614655424   0.000000000000 Bohr
[INPUT] ---------------- BASIS SET ---------------- 
[INPUT] l, kappa, [nprim/nctr], expnt,             c_1 c_2 ...
[INPUT] H
[INPUT] 0    0    [3    /1   ]  13.01             0.019685
                                1.962             0.137977
                                0.4446            0.478148
[INPUT] 0    0    [1    /1   ]  0.122                1
[INPUT] 1    0    [1    /1   ]  0.727                1
[INPUT] C
[INPUT] 0    0    [8    /2   ]  6665              0.000692 -0.000146
                                1000              0.005329 -0.001154
                                228               0.027077 -0.005725
                                64.71             0.101718 -0.023312
                                21.06             0.27474 -0.063955
                                7.495             0.448564 -0.149981
                                2.797             0.285074 -0.127262
                                0.5215            0.015204 0.544529
[INPUT] 0    0    [1    /1   ]  0.1596               1
[INPUT] 1    0    [3    /1   ]  9.439             0.038109
                                2.002             0.20948
                                0.5456            0.508557
[INPUT] 1    0    [1    /1   ]  0.1517               1
[INPUT] 2    0    [1    /1   ]  0.55                 1

nuclear repulsion = 201.574407105832
number of shells = 48
number of NR pGTOs = 198
number of NR cGTOs = 114
basis = cc-pVDZ
ecp = {}
CPU time:         0.96


******** <class 'pyscf.scf.hf.RHF'> ********
method = RHF
initial guess = minao
damping factor = 0
level_shift factor = 0
DIIS = <class 'pyscf.scf.diis.CDIIS'>
diis_start_cycle = 1
diis_space = 8
SCF conv_tol = 1e-09
SCF conv_tol_grad = None
SCF max_cycles = 50
direct_scf = True
direct_scf_tol = 1e-13
chkfile to save SCF result = /tmp/tmpjzbzgabx
max_memory 16000 MB (current use 63 MB)
Set gradient conv threshold to 3.16228e-05
cond(S) = 14906.430395756073
E1 = -707.6683952645548  E_coul = 273.91920997519276
init E= -232.17477818353
    CPU time for initialize scf      5.52 sec, wall time      0.32 sec
  HOMO = -0.244946962239188  LUMO = 0.0407629725534605
  mo_energy =
[-11.32171698 -11.31807524 -11.31807524 -11.31481816 -11.31481816
 -11.31383078  -1.65146925  -1.30006757  -1.30006757  -0.8948748
  -0.8948748   -0.67309079  -0.59680542  -0.4874348   -0.47388923
  -0.47388923  -0.42186604  -0.33542708  -0.33542708  -0.24494696
  -0.24494696   0.04076297   0.04076297   0.12166286   0.18530356
   0.18530356   0.21150866   0.21150866   0.22696332   0.23468123
   0.3712369    0.3712369    0.40417004   0.40417004   0.53873847
   0.55202301   0.55967746   0.63619628   0.65702391   0.65702391
   0.66469288   0.67240967   0.67240967   0.68928121   0.69050428
   0.69050428   0.76528794   0.76528794   0.80184163   0.80184163
   0.80902948   0.80902948   0.84436832   0.90317511   0.9485228
   1.00157958   1.04275245   1.04275245   1.04685613   1.09939144
   1.15727454   1.15727454   1.19354103   1.19354103   1.19520849
   1.19520849   1.23621795   1.26300385   1.26300385   1.40702439
   1.4599676    1.4599676    1.66367002   1.68148831   1.68148831
   1.71598783   1.7355962    1.8101684    1.8101684    1.81395643
   1.81395643   1.84885287   1.89747259   1.89747259   1.90158311
   1.90449457   1.90449457   2.01530214   2.01530214   2.05243916
   2.07417896   2.07417896   2.07808109   2.07808109   2.11771661
   2.19606903   2.19606903   2.20375337   2.20375337   2.24937417
   2.42007279   2.47808985   2.60989556   2.66650668   2.66650668
   2.68437678   2.68437678   2.8555885    2.8555885    2.93265589
   3.03333593   3.14937536   3.14937536   3.88067975]
E1 = -708.4869705337705  E_coul = 276.2569605000701
cycle= 1 E= -230.655602927868  delta_E= 1.52  |g|= 0.391  |ddm|=  3.3
    CPU time for cycle= 1      0.35 sec, wall time      0.02 sec
  HOMO = -0.353747343025526  LUMO = 0.112867528478613
  mo_energy =
[-11.28412587 -11.28362783 -11.28362783 -11.282532   -11.282532
 -11.28199521  -1.16911652  -1.03479852  -1.03479852  -0.83991752
  -0.83991752  -0.71440301  -0.65481928  -0.62476025  -0.59116977
  -0.59116977  -0.51575189  -0.49713891  -0.49713891  -0.35374734
  -0.35374734   0.11286753   0.11286753   0.16738365   0.21093545
   0.21093545   0.24440253   0.24440253   0.25966168   0.32353782
   0.41449043   0.41449043   0.4433781    0.4433781    0.56733241
   0.57396573   0.63230744   0.66605415   0.69891855   0.71168199
   0.71168199   0.71707111   0.71707111   0.71796625   0.71796625
   0.72051754   0.80462284   0.80462284   0.83366627   0.83366627
   0.85998377   0.85998377   0.88802774   0.958895     0.98063819
   1.03080289   1.08395333   1.08395333   1.09441491   1.1280764
   1.18877468   1.18877468   1.22141801   1.22141801   1.22202545
   1.22202545   1.27771834   1.29254599   1.29254599   1.4445197
   1.49062128   1.49062128   1.69676823   1.71543022   1.71543022
   1.74097269   1.77493811   1.84177261   1.84177261   1.85092896
   1.85092896   1.87252927   1.92544788   1.92544788   1.93256855
   1.93256855   1.94037898   2.0558617    2.0558617    2.07735143
   2.1140343    2.1140343    2.12022965   2.12022965   2.14345115
   2.22852856   2.22852856   2.23497095   2.23497095   2.28006765
   2.46261051   2.51403545   2.64144832   2.70540888   2.70540888
   2.71746015   2.71746015   2.89508228   2.89508228   2.96804669
   3.06701485   3.19140183   3.19140183   3.92643454]
E1 = -709.8486611744692  E_coul = 277.5601467046199
cycle= 2 E= -230.714107364017  delta_E= -0.0585  |g|= 0.105  |ddm|= 0.646
    CPU time for cycle= 2      0.35 sec, wall time      0.02 sec
  HOMO = -0.323533121326631  LUMO = 0.142171127176087
  mo_energy =
[-11.22382862 -11.22330174 -11.22330174 -11.22216087 -11.22216087
 -11.22160553  -1.12942373  -0.99725363  -0.99725363  -0.80727932
  -0.80727932  -0.68923227  -0.63089127  -0.59746278  -0.57028322
  -0.57028322  -0.48600716  -0.47800493  -0.47800493  -0.32353312
  -0.32353312   0.14217113   0.14217113   0.18173756   0.22029258
   0.22029258   0.25491661   0.25491661   0.26962725   0.35214398
   0.43804938   0.43804938   0.46862767   0.46862767   0.58861942
   0.59283915   0.66409194   0.68888528   0.722192     0.7398565
   0.73993243   0.73993243   0.74019743   0.74019743   0.74164048
   0.74164048   0.82923903   0.82923903   0.85579905   0.85579905
   0.88704522   0.88704522   0.914146     0.98813698   1.00116804
   1.05872025   1.10844129   1.10844129   1.12485601   1.15800166
   1.20874299   1.20874299   1.24231427   1.24231427   1.24722778
   1.24722778   1.30078729   1.32003161   1.32003161   1.47149572
   1.50877134   1.50877134   1.72527934   1.74051954   1.74051954
   1.7611496    1.80559912   1.86663769   1.86663769   1.87942895
   1.87942895   1.89267536   1.94771892   1.94771892   1.95548053
   1.95548053   1.9597709    2.08472367   2.08472367   2.10077762
   2.14618067   2.14618067   2.15362868   2.15362868   2.16745501
   2.25220965   2.25220965   2.26105686   2.26105686   2.30722346
   2.49193491   2.53909611   2.66992687   2.73649004   2.73649004
   2.74807179   2.74807179   2.92614298   2.92614298   2.99467675
   3.09745336   3.22537821   3.22537821   3.961753  ]
E1 = -709.3783232897839  E_coul = 277.0855087898739
cycle= 3 E= -230.718407394078  delta_E= -0.0043  |g|= 0.0287  |ddm|= 0.247
    CPU time for cycle= 3      0.35 sec, wall time      0.02 sec
  HOMO = -0.33305281499735  LUMO = 0.133537671164881
  mo_energy =
[-11.24548467 -11.24496132 -11.24496132 -11.24383058 -11.24383058
 -11.24328034  -1.1423829   -1.00861204  -1.00861204  -0.81689467
  -0.81689467  -0.69734655  -0.63627817  -0.61158335  -0.5797753
  -0.5797753   -0.49600653  -0.48841464  -0.48841464  -0.33305281
  -0.33305281   0.13353767   0.13353767   0.17948453   0.21872287
   0.21872287   0.25374102   0.25374102   0.26896392   0.34447234
   0.43225176   0.43225176   0.46260846   0.46260846   0.58311452
   0.58673715   0.65752117   0.68082672   0.71060466   0.73170499
   0.73170499   0.73274666   0.73274666   0.73315299   0.73315299
   0.73536713   0.82128939   0.82128939   0.84888398   0.84888398
   0.87846145   0.87846145   0.90600805   0.97771251   0.99481556
   1.04963372   1.10122293   1.10122293   1.11446054   1.14661661
   1.20311321   1.20311321   1.2358853    1.2358853    1.23908296
   1.23908296   1.29486465   1.31117837   1.31117837   1.46282123
   1.50378609   1.50378609   1.71630024   1.73319792   1.73319792
   1.75736109   1.79591118   1.86088453   1.86088453   1.87037769
   1.87037769   1.88928723   1.94230748   1.94230748   1.95109897
   1.95109897   1.95426408   2.07508752   2.07508752   2.0961064
   2.13512148   2.13512148   2.14292559   2.14292559   2.16257067
   2.24516158   2.24516158   2.25439811   2.25439811   2.30045437
   2.48181253   2.531146     2.66423086   2.7272233    2.7272233
   2.74068707   2.74068707   2.91727812   2.91727812   2.98710182
   3.08928683   3.21500703   3.21500703   3.95057039]
E1 = -709.6072992774199  E_coul = 277.3142304801422
cycle= 4 E= -230.718661691445  delta_E= -0.000254  |g|= 0.00477  |ddm|= 0.0331
    CPU time for cycle= 4      0.34 sec, wall time      0.02 sec
  HOMO = -0.332452325537233  LUMO = 0.133854751885435
  mo_energy =
[-11.24564414 -11.24512123 -11.24512123 -11.2439909  -11.2439909
 -11.2434405   -1.14149927  -1.00811228  -1.00811228  -0.81684108
  -0.81684108  -0.69739665  -0.63673339  -0.61150621  -0.57983867
  -0.57983867  -0.495305    -0.48868096  -0.48868096  -0.33245233
  -0.33245233   0.13385475   0.13385475   0.17946652   0.21853669
   0.21853669   0.25351271   0.25351271   0.26878733   0.34459098
   0.43226108   0.43226108   0.46252069   0.46252069   0.58311742
   0.58638895   0.6575888    0.68153023   0.71162967   0.73160529
   0.73160529   0.73317246   0.73317246   0.73323039   0.73323039
   0.73499261   0.82159256   0.82159256   0.84877127   0.84877127
   0.87837518   0.87837518   0.90618161   0.977721     0.99467454
   1.04990209   1.10108863   1.10108863   1.1141307    1.14692759
   1.20311766   1.20311766   1.23606011   1.23606011   1.23922651
   1.23922651   1.29491298   1.31119006   1.31119006   1.46321654
   1.5038608    1.5038608    1.71633882   1.73317354   1.73317354
   1.75707209   1.79594938   1.86064686   1.86064686   1.87065987
   1.87065987   1.88906094   1.94227473   1.94227473   1.95070615
   1.95070615   1.95442256   2.07502633   2.07502633   2.0958322
   2.13513716   2.13513716   2.14294746   2.14294746   2.16208611
   2.245345     2.245345     2.25427307   2.25427307   2.30016549
   2.4816391    2.53134188   2.66380268   2.72713793   2.72713793
   2.74043515   2.74043515   2.91717718   2.91717718   2.98691425
   3.08893227   3.21516777   3.21516777   3.95081578]
E1 = -709.5910436079384  E_coul = 277.2979673763762
cycle= 5 E= -230.71866912573  delta_E= -7.43e-06  |g|= 0.00072  |ddm|= 0.00649
    CPU time for cycle= 5      0.35 sec, wall time      0.02 sec
  HOMO = -0.332258867674923  LUMO = 0.134000014336813
  mo_energy =
[-11.24536885 -11.24484576 -11.24484576 -11.24371493 -11.24371493
 -11.24316419  -1.14136328  -1.0079705   -1.0079705   -0.81671657
  -0.81671657  -0.69734049  -0.63666182  -0.61136842  -0.57978517
  -0.57978517  -0.49511757  -0.48861337  -0.48861337  -0.33225887
  -0.33225887   0.13400001   0.13400001   0.17948217   0.21852975
   0.21852975   0.25350486   0.25350486   0.26877505   0.34471805
   0.43231188   0.43231188   0.46259769   0.46259769   0.5831354
   0.58643612   0.6576404    0.68171374   0.71169279   0.73167292
   0.73167292   0.73323989   0.73323989   0.7333957    0.7333957
   0.73504478   0.82174888   0.82174888   0.84883016   0.84883016
   0.87841767   0.87841767   0.90632861   0.97777774   0.99474484
   1.04997647   1.10116767   1.10116767   1.11423927   1.14709525
   1.20318836   1.20318836   1.23612044   1.23612044   1.23931144
   1.23931144   1.29493828   1.31130389   1.31130389   1.46328094
   1.503912     1.503912     1.71642824   1.73326241   1.73326241
   1.75709631   1.79606936   1.86068436   1.86068436   1.87071159
   1.87071159   1.88905035   1.94230294   1.94230294   1.95073655
   1.95073655   1.95449525   2.07515968   2.07515968   2.09583224
   2.13527922   2.13527922   2.14304901   2.14304901   2.16211131
   2.24538493   2.24538493   2.25431147   2.25431147   2.30020948
   2.48179358   2.53139592   2.66381507   2.72723087   2.72723087
   2.74046106   2.74046106   2.91725131   2.91725131   2.98701517
   3.08900724   3.21523444   3.21523444   3.95089285]
E1 = -709.5893957009266  E_coul = 277.29631916856283
cycle= 6 E= -230.718669426532  delta_E= -3.01e-07  |g|= 0.000125  |ddm|= 0.00131
    CPU time for cycle= 6      0.34 sec, wall time      0.02 sec
  HOMO = -0.332238669648073  LUMO = 0.134009324608343
  mo_energy =
[-11.24537466 -11.24485161 -11.24485161 -11.24372085 -11.24372085
 -11.24317015  -1.14136053  -1.00797026  -1.00797026  -0.81671975
  -0.81671975  -0.69734613  -0.63666768  -0.6113698   -0.57979138
  -0.57979138  -0.49509418  -0.48861795  -0.48861795  -0.33223867
  -0.33223867   0.13400932   0.13400932   0.17948381   0.21852769
   0.21852769   0.25350257   0.25350257   0.26877261   0.34472548
   0.43231414   0.43231414   0.46260265   0.46260265   0.58314142
   0.58643752   0.6576466    0.6817333    0.71169794   0.73167797
   0.73167797   0.73324213   0.73324213   0.7334133    0.7334133
   0.73504701   0.82176241   0.82176241   0.84883017   0.84883017
   0.87841597   0.87841597   0.90633976   0.97777756   0.99474598
   1.04998293   1.10116864   1.10116864   1.11423853   1.1471008
   1.20319228   1.20319228   1.23612659   1.23612659   1.23931833
   1.23931833   1.29494201   1.31130889   1.31130889   1.46328982
   1.50391693   1.50391693   1.71643264   1.73326746   1.73326746
   1.75710142   1.7960741    1.86068793   1.86068793   1.870718
   1.870718     1.88905431   1.94230756   1.94230756   1.95074009
   1.95074009   1.95450077   2.07516327   2.07516327   2.09583342
   2.13528278   2.13528278   2.14305096   2.14305096   2.16211264
   2.24538985   2.24538985   2.25431486   2.25431486   2.30021071
   2.48179715   2.53140057   2.66381617   2.72723348   2.72723348
   2.74046272   2.74046272   2.91725327   2.91725327   2.98701882
   3.08900774   3.21523957   3.21523957   3.95089973]
E1 = -709.5896404624775  E_coul = 277.2965639200784
cycle= 7 E= -230.718669436567  delta_E= -1e-08  |g|= 9.4e-06  |ddm|= 0.000264
    CPU time for cycle= 7      0.34 sec, wall time      0.02 sec
  HOMO = -0.332239657770792  LUMO = 0.134008062170055
  mo_energy =
[-11.24537739 -11.24485434 -11.24485434 -11.24372357 -11.24372357
 -11.24317287  -1.14136199  -1.0079715   -1.0079715   -0.81672044
  -0.81672044  -0.69734723  -0.63666841  -0.61137024  -0.57979236
  -0.57979236  -0.49509498  -0.48861853  -0.48861853  -0.33223966
  -0.33223966   0.13400806   0.13400806   0.17948274   0.2185265
   0.2185265    0.25350139   0.25350139   0.26877159   0.3447242
   0.43231263   0.43231263   0.46260081   0.46260081   0.58313948
   0.58643618   0.65764419   0.68173273   0.71169609   0.73167576
   0.73167576   0.73324015   0.73324015   0.73341282   0.73341282
   0.73504561   0.82176162   0.82176162   0.84882881   0.84882881
   0.87841384   0.87841384   0.90633875   0.97777514   0.99474446
   1.04998138   1.10116704   1.10116704   1.1142368    1.1470993
   1.20319112   1.20319112   1.23612507   1.23612507   1.23931671
   1.23931671   1.29494021   1.31130729   1.31130729   1.46328795
   1.50391564   1.50391564   1.71643073   1.73326593   1.73326593
   1.75709988   1.79607214   1.86068594   1.86068594   1.8707158
   1.8707158    1.88905252   1.9423058    1.9423058    1.95073822
   1.95073822   1.95449967   2.07516171   2.07516171   2.09583129
   2.13528099   2.13528099   2.14304873   2.14304873   2.16211069
   2.24538805   2.24538805   2.25431287   2.25431287   2.30020868
   2.48179572   2.53139877   2.66381377   2.72723146   2.72723146
   2.74046025   2.74046025   2.91725107   2.91725107   2.98701725
   3.08900562   3.21523713   3.21523713   3.95089729]
E1 = -709.5896864664755  E_coul = 277.29660992403865
cycle= 8 E= -230.718669436605  delta_E= -3.78e-11  |g|= 1.01e-06  |ddm|= 2.44e-05
    CPU time for cycle= 8      0.35 sec, wall time      0.02 sec
  HOMO = -0.332239540050246  LUMO = 0.13400817286682
  mo_energy =
[-11.24537734 -11.24485429 -11.24485429 -11.24372352 -11.24372352
 -11.24317282  -1.14136194  -1.00797145  -1.00797145  -0.81672043
  -0.81672043  -0.6973473   -0.63666844  -0.61137023  -0.57979242
  -0.57979242  -0.49509487  -0.48861853  -0.48861853  -0.33223954
  -0.33223954   0.13400817   0.13400817   0.1794828    0.21852654
   0.21852654   0.25350146   0.25350146   0.26877164   0.34472431
   0.43231274   0.43231274   0.46260089   0.46260089   0.5831396
   0.58643636   0.6576444    0.68173283   0.71169625   0.73167596
   0.73167596   0.73324028   0.73324028   0.73341291   0.73341291
   0.73504567   0.82176172   0.82176172   0.8488289    0.8488289
   0.8784139    0.8784139    0.90633884   0.97777525   0.99474454
   1.0499815    1.10116715   1.10116715   1.11423692   1.1470994
   1.20319122   1.20319122   1.23612517   1.23612517   1.23931682
   1.23931682   1.29494031   1.31130739   1.31130739   1.46328808
   1.50391573   1.50391573   1.71643084   1.73326604   1.73326604
   1.75709997   1.79607227   1.86068604   1.86068604   1.87071593
   1.87071593   1.8890526    1.94230589   1.94230589   1.95073832
   1.95073832   1.95449976   2.07516182   2.07516182   2.09583139
   2.13528111   2.13528111   2.14304885   2.14304885   2.16211078
   2.24538815   2.24538815   2.25431297   2.25431297   2.30020877
   2.48179585   2.53139887   2.66381386   2.72723157   2.72723157
   2.74046034   2.74046034   2.91725119   2.91725119   2.98701735
   3.08900573   3.21523726   3.21523726   3.95089743]
E1 = -709.5896868321058  E_coul = 277.2966102896678
Extra cycle  E= -230.718669436606  delta_E= -1.14e-12  |g|= 3.24e-07  |ddm|= 3.08e-06
    CPU time for scf_cycle      8.61 sec, wall time      0.48 sec
    CPU time for SCF      8.61 sec, wall time      0.48 sec
converged SCF energy = -230.718669436606

******** <class 'pyscf.mp.mp2.MP2'> ********
nocc = 21, nmo = 114
max_memory 16000 MB (current use 245 MB)
transform (ia|jb) incore
    CPU time for Integral transformation      3.59 sec, wall time      0.18 sec
E(MP2) = -231.52117173239  E_corr = -0.802502295784014


******** <class 'pyscf.dft.rks.RKS'> ********
method = RKS-RHF
initial guess = minao
damping factor = 0
level_shift factor = 0
DIIS = <class 'pyscf.scf.diis.CDIIS'>
diis_start_cycle = 1
diis_space = 8
SCF conv_tol = 1e-09
SCF conv_tol_grad = None
SCF max_cycles = 50
direct_scf = True
direct_scf_tol = 1e-13
chkfile to save SCF result = /tmp/tmpk20ogpcx
max_memory 16000 MB (current use 280 MB)
XC functionals = b3lyp
small_rho_cutoff = 1e-07
radial grids: 
    Treutler-Ahlrichs (JCP 102, 346 (M4)) radial grids
    
becke partition: Becke, JCP, 88, 2547 (1988)
pruning grids: <function nwchem_prune at 0x2addbf3cd830>
grids dens level: 3
symmetrized grids: False
atomic radii adjust function: <function treutler_atomic_radii_adjust at 0x2addbf3cdcb0>
Set gradient conv threshold to 3.16228e-05
cond(S) = 14906.430395756073
atom C rad-grids = 75, ang-grids = [ 50  50  50  50  50  50  50  50  50  50  50  50  50  50  50  50  50  50
  50  50  50  50  50  86  86  86  86  86  86  86  86  86  86 266 266 266
 266 266 266 266 302 302 302 302 302 302 302 302 302 302 302 302 302 302
 302 302 302 302 302 302 266 266 266 266 266 266 266 266 266 266 266 266
 266 266 266]
atom H rad-grids = 50, ang-grids = [ 50  50  50  50  50  50  50  50  50  50  50  50  50  50  86  86  86  86
 266 266 266 266 302 302 302 302 302 302 302 302 302 302 302 302 302 266
 266 266 266 266 266 266 266 266 266 266 266 266 266 266]
tot grids = 143556
Drop grids 22590
    CPU time for setting up grids      2.01 sec, wall time      0.10 sec
nelec by numeric integration = 41.990517507354234
    CPU time for vxc      6.09 sec, wall time      0.30 sec
E1 = -707.6683952645548  Ecoul = 307.83195761653184  Exc = -34.57724741645072
init E= -232.839277958641
    CPU time for initialize scf     12.64 sec, wall time      0.63 sec
  HOMO = -0.293841470161938  LUMO = -0.0856787875732158
  mo_energy =
[-10.28066217 -10.27986331 -10.27986331 -10.2789574  -10.2789574
 -10.27864551  -1.02551104  -0.87328216  -0.87328184  -0.68259833
  -0.68259804  -0.57171686  -0.50478958  -0.49816302  -0.45995949
  -0.45995907  -0.40724452  -0.3782652   -0.37826509  -0.29384154
  -0.29384147  -0.08567879  -0.08567768   0.01670618   0.06442624
   0.06470953   0.06470985   0.0961445    0.09614512   0.11740851
   0.21215929   0.21216143   0.22691708   0.22692251   0.35212395
   0.36176799   0.3841935    0.41121909   0.43919058   0.43919088
   0.44522073   0.44522087   0.45751433   0.46805002   0.46991505
   0.46991926   0.53989946   0.53990359   0.57596897   0.57596948
   0.59768602   0.5976965    0.6153992    0.632042     0.7336437
   0.76522311   0.7928604    0.82144479   0.82144608   0.85079246
   0.94197447   0.94197659   0.94489878   0.94490209   0.95662521
   0.95662652   0.99975184   1.002427     1.00242714   1.14309981
   1.22383121   1.22384777   1.38722105   1.41146919   1.41147069
   1.4511654    1.45862809   1.51482795   1.51483427   1.53272393
   1.53272693   1.57848047   1.61946746   1.61946791   1.63109439
   1.63110009   1.66630034   1.71614046   1.71614124   1.75790761
   1.757909     1.7611881    1.76119006   1.76880993   1.8309326
   1.90413523   1.90413567   1.90466659   1.9046699    1.93598806
   2.10583855   2.17089169   2.27076486   2.32780598   2.32781238
   2.33034881   2.3303493    2.52765295   2.52765695   2.62298671
   2.68860806   2.78451522   2.78452886   3.49754532]
nelec by numeric integration = 42.00002743816383
    CPU time for vxc      5.30 sec, wall time      0.27 sec
E1 = -713.2082436189194  Ecoul = 314.3396497048  Exc = -34.78075686081818
cycle= 1 E= -232.074943669105  delta_E= 0.764  |g|= 0.328  |ddm|=  3.6
    CPU time for cycle= 1      5.64 sec, wall time      0.28 sec
  HOMO = -0.193387361364157  LUMO = 0.0462741091135854
  mo_energy =
[-10.08556902 -10.08537136 -10.08537042 -10.08491096 -10.08491002
 -10.08470176  -0.77395569  -0.67768872  -0.67768871  -0.54487171
  -0.54487127  -0.46736504  -0.42520245  -0.37041406  -0.36486347
  -0.36486334  -0.30279832  -0.28883527  -0.2888352   -0.1933877
  -0.19338736   0.04627411   0.04627597   0.07538884   0.11405842
   0.11405846   0.14641044   0.14641061   0.16172913   0.19873772
   0.31258437   0.31258669   0.32889178   0.32889908   0.42807307
   0.44349445   0.49291774   0.51623507   0.54769338   0.54769396
   0.55561829   0.55561924   0.56629603   0.56630044   0.57052781
   0.59122668   0.63691379   0.63691786   0.68304278   0.6830518
   0.6844382    0.68443881   0.70783279   0.77129522   0.82126798
   0.87994219   0.89934452   0.92172919   0.92173189   0.98381217
   1.02603929   1.02604249   1.04446421   1.04446976   1.04924907
   1.04925281   1.07975739   1.11650332   1.1165034    1.25909688
   1.30329219   1.30330975   1.50687973   1.51176275   1.51176381
   1.52969251   1.58055515   1.62875203   1.62875313   1.63653038
   1.63653682   1.64727126   1.70714015   1.70714177   1.71227445
   1.71228074   1.75391872   1.83693375   1.8369344    1.84917464
   1.8875011    1.88750156   1.89125127   1.89125136   1.91163996
   1.99977301   1.99977735   2.00404712   2.00404907   2.02902179
   2.23441414   2.27889506   2.36281435   2.43320468   2.4332126
   2.45179959   2.45180028   2.64649375   2.64649639   2.7277118
   2.79862699   2.91946052   2.91948301   3.64212936]
nelec by numeric integration = 42.0000318359424
    CPU time for vxc      5.30 sec, wall time      0.27 sec
E1 = -707.3053317487304  Ecoul = 308.0298312151965  Exc = -34.368067295084956
cycle= 2 E= -232.069160722787  delta_E= 0.00578  |g|= 0.372  |ddm|= 0.885
    CPU time for cycle= 2      7.64 sec, wall time      0.38 sec
  HOMO = -0.247858486389025  LUMO = -0.003369996670736
  mo_energy =
[-1.01870363e+01 -1.01868416e+01 -1.01868410e+01 -1.01863891e+01
 -1.01863885e+01 -1.01861838e+01 -8.44722181e-01 -7.37734484e-01
 -7.37734226e-01 -5.93595559e-01 -5.93595236e-01 -5.11308735e-01
 -4.52575730e-01 -4.37078452e-01 -4.13093629e-01 -4.13093286e-01
 -3.59357997e-01 -3.37122904e-01 -3.37122877e-01 -2.47858811e-01
 -2.47858486e-01 -3.36999667e-03 -3.36836038e-03  5.90262401e-02
  1.00290746e-01  1.00290851e-01  1.34652199e-01  1.34652536e-01
  1.51790004e-01  1.52189089e-01  2.77195328e-01  2.77197786e-01
  2.95912460e-01  2.95919132e-01  4.04704644e-01  4.13338904e-01
  4.57354784e-01  4.69526613e-01  5.08986123e-01  5.08986465e-01
  5.15027004e-01  5.15027759e-01  5.24242012e-01  5.24246731e-01
  5.28435403e-01  5.39925050e-01  5.96114064e-01  5.96118420e-01
  6.42486771e-01  6.42487469e-01  6.50094014e-01  6.50103888e-01
  6.69895392e-01  7.15377645e-01  7.88832118e-01  8.33242624e-01
  8.56335716e-01  8.84234297e-01  8.84236105e-01  9.26884621e-01
  9.96732158e-01  9.96735274e-01  1.00709488e+00  1.00709882e+00
  1.01045168e+00  1.01045594e+00  1.05316589e+00  1.07199844e+00
  1.07199851e+00  1.21231790e+00  1.27450219e+00  1.27452042e+00
  1.46098366e+00  1.47487029e+00  1.47487159e+00  1.50896941e+00
  1.53113364e+00  1.58856671e+00  1.58857353e+00  1.59759946e+00
  1.59760141e+00  1.62714045e+00  1.67754364e+00  1.67754506e+00
  1.68860948e+00  1.68861562e+00  1.72160904e+00  1.78950779e+00
  1.78950838e+00  1.82385374e+00  1.83635283e+00  1.83635404e+00
  1.83865275e+00  1.83865323e+00  1.88727749e+00  1.96618780e+00
  1.96618986e+00  1.96697845e+00  1.96698336e+00  1.99761794e+00
  2.18579935e+00  2.23772518e+00  2.33419120e+00  2.39640032e+00
  2.39640788e+00  2.40582839e+00  2.40582872e+00  2.60342349e+00
  2.60342638e+00  2.69002348e+00  2.76066470e+00  2.86697567e+00
  2.86699780e+00  3.58610173e+00]
nelec by numeric integration = 42.00002950408924
    CPU time for vxc      6.00 sec, wall time      0.30 sec
E1 = -710.3913530043455  Ecoul = 311.2768571250184  Exc = -34.56785400109572
cycle= 3 E= -232.107942774591  delta_E= -0.0388  |g|= 0.0162  |ddm|= 0.392
    CPU time for cycle= 3      6.36 sec, wall time      0.32 sec
  HOMO = -0.249833627205486  LUMO = -0.0056682372332811
  mo_energy =
[-1.01928390e+01 -1.01926431e+01 -1.01926423e+01 -1.01921896e+01
 -1.01921887e+01 -1.01919835e+01 -8.45891161e-01 -7.40043115e-01
 -7.40042900e-01 -5.96818737e-01 -5.96818424e-01 -5.13758595e-01
 -4.56218030e-01 -4.40490554e-01 -4.15434319e-01 -4.15433999e-01
 -3.60951313e-01 -3.40264230e-01 -3.40264185e-01 -2.49834015e-01
 -2.49833627e-01 -5.66823723e-03 -5.66655740e-03  5.78568840e-02
  9.90062231e-02  9.90063501e-02  1.33146345e-01  1.33146669e-01
  1.49200833e-01  1.50900890e-01  2.75720537e-01  2.75723005e-01
  2.93635315e-01  2.93642017e-01  4.03242445e-01  4.11125054e-01
  4.55853464e-01  4.68281542e-01  5.06739595e-01  5.06739935e-01
  5.12846132e-01  5.12846814e-01  5.22771560e-01  5.22776267e-01
  5.28490252e-01  5.36899993e-01  5.94287226e-01  5.94291678e-01
  6.40379508e-01  6.40380253e-01  6.48000772e-01  6.48010702e-01
  6.67925509e-01  7.13142911e-01  7.86492799e-01  8.31529829e-01
  8.53399506e-01  8.82012980e-01  8.82014925e-01  9.24466580e-01
  9.94904403e-01  9.94907529e-01  1.00514414e+00  1.00514815e+00
  1.00898678e+00  1.00899109e+00  1.05169808e+00  1.06949987e+00
  1.06949996e+00  1.21108731e+00  1.27307647e+00  1.27309486e+00
  1.45882071e+00  1.47261821e+00  1.47261952e+00  1.50684727e+00
  1.52852581e+00  1.58685621e+00  1.58686300e+00  1.59538394e+00
  1.59538592e+00  1.62545228e+00  1.67583472e+00  1.67583618e+00
  1.68616332e+00  1.68616953e+00  1.72014725e+00  1.78677381e+00
  1.78677436e+00  1.82187742e+00  1.83380478e+00  1.83380601e+00
  1.83604829e+00  1.83604883e+00  1.88463154e+00  1.96472317e+00
  1.96472527e+00  1.96478379e+00  1.96478871e+00  1.99504729e+00
  2.18267612e+00  2.23610000e+00  2.33156800e+00  2.39391839e+00
  2.39392599e+00  2.40330003e+00  2.40330033e+00  2.60099532e+00
  2.60099813e+00  2.68744845e+00  2.75776799e+00  2.86489178e+00
  2.86491407e+00  3.58407517e+00]
nelec by numeric integration = 42.00002935775521
    CPU time for vxc      6.09 sec, wall time      0.30 sec
E1 = -710.4558628743376  Ecoul = 311.3502843251053  Exc = -34.57683297641882
cycle= 4 E= -232.108004419819  delta_E= -6.16e-05  |g|= 0.00434  |ddm|= 0.0188
    CPU time for cycle= 4      6.48 sec, wall time      0.32 sec
  HOMO = -0.24927969401049  LUMO = -0.00505296316002286
  mo_energy =
[-1.01914940e+01 -1.01912977e+01 -1.01912970e+01 -1.01908436e+01
 -1.01908429e+01 -1.01906374e+01 -8.45374637e-01 -7.39358783e-01
 -7.39358494e-01 -5.96052368e-01 -5.96052057e-01 -5.13274077e-01
 -4.55536645e-01 -4.39717013e-01 -4.15000318e-01 -4.14999934e-01
 -3.60471691e-01 -3.39691216e-01 -3.39691166e-01 -2.49280025e-01
 -2.49279694e-01 -5.05296316e-03 -5.05132241e-03  5.81104075e-02
  9.92415148e-02  9.92416811e-02  1.33439304e-01  1.33439640e-01
  1.49866886e-01  1.51150072e-01  2.76122572e-01  2.76125050e-01
  2.94176651e-01  2.94183358e-01  4.03564689e-01  4.11580345e-01
  4.56317369e-01  4.68712446e-01  5.07279789e-01  5.07280129e-01
  5.13344864e-01  5.13345544e-01  5.23212283e-01  5.23217047e-01
  5.28647187e-01  5.37517562e-01  5.94770120e-01  5.94774533e-01
  6.40850874e-01  6.40851671e-01  6.48453516e-01  6.48463470e-01
  6.68406787e-01  7.13678719e-01  7.86977504e-01  8.31912484e-01
  8.54028778e-01  8.82517334e-01  8.82519299e-01  9.25065278e-01
  9.95307392e-01  9.95310551e-01  1.00554910e+00  1.00555308e+00
  1.00931455e+00  1.00931885e+00  1.05203371e+00  1.07004030e+00
  1.07004038e+00  1.21142522e+00  1.27339508e+00  1.27341347e+00
  1.45934122e+00  1.47310907e+00  1.47311038e+00  1.50722497e+00
  1.52917702e+00  1.58726683e+00  1.58727365e+00  1.59585391e+00
  1.59585587e+00  1.62574423e+00  1.67618105e+00  1.67618249e+00
  1.68663943e+00  1.68664565e+00  1.72051195e+00  1.78740753e+00
  1.78740805e+00  1.82225633e+00  1.83443056e+00  1.83443180e+00
  1.83670121e+00  1.83670174e+00  1.88513270e+00  1.96504733e+00
  1.96504949e+00  1.96524064e+00  1.96524561e+00  1.99556873e+00
  2.18340176e+00  2.23647349e+00  2.33207585e+00  2.39442233e+00
  2.39442998e+00  2.40389637e+00  2.40389670e+00  2.60157190e+00
  2.60157467e+00  2.68803708e+00  2.75839359e+00  2.86540303e+00
  2.86542538e+00  3.58460834e+00]
nelec by numeric integration = 42.00002940414651
    CPU time for vxc      5.28 sec, wall time      0.26 sec
E1 = -710.4292600706883  Ecoul = 311.3209625230623  Exc = -34.57411960472502
cycle= 5 E= -232.108010046519  delta_E= -5.63e-06  |g|= 0.000121  |ddm|= 0.00623
    CPU time for cycle= 5      5.63 sec, wall time      0.28 sec
  HOMO = -0.249253117334539  LUMO = -0.00502913450090693
  mo_energy =
[-1.01914581e+01 -1.01912619e+01 -1.01912611e+01 -1.01908078e+01
 -1.01908070e+01 -1.01906015e+01 -8.45342416e-01 -7.39329637e-01
 -7.39329439e-01 -5.96026218e-01 -5.96025905e-01 -5.13246913e-01
 -4.55512858e-01 -4.39691039e-01 -4.14973314e-01 -4.14973008e-01
 -3.60444707e-01 -3.39666586e-01 -3.39666539e-01 -2.49253532e-01
 -2.49253117e-01 -5.02913450e-03 -5.02743403e-03  5.81231188e-02
  9.92523869e-02  9.92525132e-02  1.33449899e-01  1.33450207e-01
  1.49890682e-01  1.51160820e-01  2.76140799e-01  2.76143277e-01
  2.94195288e-01  2.94202005e-01  4.03582593e-01  4.11593958e-01
  4.56337825e-01  4.68733814e-01  5.07298723e-01  5.07299062e-01
  5.13365504e-01  5.13366195e-01  5.23230964e-01  5.23235660e-01
  5.28675201e-01  5.37535142e-01  5.94788793e-01  5.94793262e-01
  6.40872086e-01  6.40872834e-01  6.48469576e-01  6.48479501e-01
  6.68425044e-01  7.13704535e-01  7.86995287e-01  8.31937701e-01
  8.54046782e-01  8.82536131e-01  8.82538081e-01  9.25087354e-01
  9.95323774e-01  9.95326891e-01  1.00557324e+00  1.00557728e+00
  1.00933377e+00  1.00933810e+00  1.05205028e+00  1.07006202e+00
  1.07006211e+00  1.21145032e+00  1.27341150e+00  1.27342989e+00
  1.45936443e+00  1.47312843e+00  1.47312975e+00  1.50724208e+00
  1.52920059e+00  1.58729336e+00  1.58730014e+00  1.59587360e+00
  1.59587559e+00  1.62576155e+00  1.67620031e+00  1.67620179e+00
  1.68665689e+00  1.68666310e+00  1.72052904e+00  1.78742816e+00
  1.78742871e+00  1.82227401e+00  1.83445293e+00  1.83445415e+00
  1.83672419e+00  1.83672471e+00  1.88514985e+00  1.96506891e+00
  1.96507102e+00  1.96526254e+00  1.96526746e+00  1.99558977e+00
  2.18342244e+00  2.23649572e+00  2.33209865e+00  2.39444744e+00
  2.39445503e+00  2.40391968e+00  2.40392000e+00  2.60159369e+00
  2.60159649e+00  2.68805654e+00  2.75841347e+00  2.86543162e+00
  2.86545394e+00  3.58463813e+00]
nelec by numeric integration = 42.00002940587794
    CPU time for vxc      5.28 sec, wall time      0.26 sec
E1 = -710.4283329362659  Ecoul = 311.31996470227057  Exc = -34.57404892251349
cycle= 6 E= -232.108010050677  delta_E= -4.16e-09  |g|= 6.12e-06  |ddm|= 0.000131
    CPU time for cycle= 6      5.77 sec, wall time      0.29 sec
  HOMO = -0.249252220363594  LUMO = -0.00502833547505602
  mo_energy =
[-1.01914579e+01 -1.01912616e+01 -1.01912610e+01 -1.01908075e+01
 -1.01908069e+01 -1.01906013e+01 -8.45341620e-01 -7.39329109e-01
 -7.39328780e-01 -5.96025930e-01 -5.96025619e-01 -5.13247065e-01
 -4.55513309e-01 -4.39690408e-01 -4.14973519e-01 -4.14973101e-01
 -3.60443690e-01 -3.39666681e-01 -3.39666631e-01 -2.49252516e-01
 -2.49252220e-01 -5.02833548e-03 -5.02671991e-03  5.81230504e-02
  9.92522175e-02  9.92524005e-02  1.33449741e-01  1.33450088e-01
  1.49891285e-01  1.51160669e-01  2.76141022e-01  2.76143499e-01
  2.94195355e-01  2.94202057e-01  4.03582249e-01  4.11594083e-01
  4.56337978e-01  4.68734799e-01  5.07298846e-01  5.07299186e-01
  5.13365663e-01  5.13366338e-01  5.23231717e-01  5.23236512e-01
  5.28676165e-01  5.37535142e-01  5.94789477e-01  5.94793865e-01
  6.40871932e-01  6.40872750e-01  6.48469657e-01  6.48479623e-01
  6.68425514e-01  7.13704610e-01  7.86995475e-01  8.31938007e-01
  8.54046902e-01  8.82536428e-01  8.82538399e-01  9.25088307e-01
  9.95323976e-01  9.95327153e-01  1.00557353e+00  1.00557748e+00
  1.00933400e+00  1.00933829e+00  1.05205013e+00  1.07006245e+00
  1.07006253e+00  1.21145064e+00  1.27341170e+00  1.27343009e+00
  1.45936471e+00  1.47312869e+00  1.47313000e+00  1.50724178e+00
  1.52920112e+00  1.58729341e+00  1.58730025e+00  1.59587349e+00
  1.59587543e+00  1.62576108e+00  1.67620024e+00  1.67620166e+00
  1.68665664e+00  1.68666285e+00  1.72052941e+00  1.78742873e+00
  1.78742924e+00  1.82227356e+00  1.83445319e+00  1.83445443e+00
  1.83672475e+00  1.83672528e+00  1.88514945e+00  1.96506894e+00
  1.96507112e+00  1.96526226e+00  1.96526726e+00  1.99558944e+00
  2.18342312e+00  2.23649586e+00  2.33209797e+00  2.39444684e+00
  2.39445453e+00  2.40391983e+00  2.40392016e+00  2.60159376e+00
  2.60159652e+00  2.68805680e+00  2.75841334e+00  2.86543162e+00
  2.86545399e+00  3.58463827e+00]
nelec by numeric integration = 42.00002940592312
    CPU time for vxc      5.33 sec, wall time      0.27 sec
E1 = -710.4283002226672  Ecoul = 311.31993090241116  Exc = -34.57404783626349
cycle= 7 E= -232.108010050687  delta_E= -1.07e-11  |g|= 8.52e-07  |ddm|= 9.4e-06
    CPU time for cycle= 7      5.68 sec, wall time      0.28 sec
  HOMO = -0.249251963119105  LUMO = -0.00502822992407188
  mo_energy =
[-1.01914576e+01 -1.01912615e+01 -1.01912605e+01 -1.01908074e+01
 -1.01908064e+01 -1.01906010e+01 -8.45341408e-01 -7.39328804e-01
 -7.39328665e-01 -5.96025724e-01 -5.96025409e-01 -5.13246873e-01
 -4.55513121e-01 -4.39690177e-01 -4.14973242e-01 -4.14972986e-01
 -3.60443520e-01 -3.39666472e-01 -3.39666426e-01 -2.49252431e-01
 -2.49251963e-01 -5.02822992e-03 -5.02649089e-03  5.81231596e-02
  9.92523576e-02  9.92524585e-02  1.33449866e-01  1.33450156e-01
  1.49891456e-01  1.51160761e-01  2.76141170e-01  2.76143648e-01
  2.94195510e-01  2.94202234e-01  4.03582396e-01  4.11594229e-01
  4.56338130e-01  4.68734937e-01  5.07299013e-01  5.07299351e-01
  5.13365816e-01  5.13366516e-01  5.23231927e-01  5.23236579e-01
  5.28676314e-01  5.37535316e-01  5.94789558e-01  5.94794064e-01
  6.40872154e-01  6.40872871e-01  6.48469831e-01  6.48479737e-01
  6.68425657e-01  7.13704809e-01  7.86995616e-01  8.31938186e-01
  8.54047076e-01  8.82536593e-01  8.82538534e-01  9.25088489e-01
  9.95324153e-01  9.95327242e-01  1.00557364e+00  1.00557772e+00
  1.00933411e+00  1.00933846e+00  1.05205027e+00  1.07006262e+00
  1.07006272e+00  1.21145081e+00  1.27341182e+00  1.27343022e+00
  1.45936490e+00  1.47312885e+00  1.47313017e+00  1.50724194e+00
  1.52920131e+00  1.58729365e+00  1.58730040e+00  1.59587363e+00
  1.59587564e+00  1.62576123e+00  1.67620036e+00  1.67620186e+00
  1.68665680e+00  1.68666301e+00  1.72052953e+00  1.78742887e+00
  1.78742944e+00  1.82227374e+00  1.83445340e+00  1.83445462e+00
  1.83672494e+00  1.83672547e+00  1.88514963e+00  1.96506915e+00
  1.96507123e+00  1.96526250e+00  1.96526738e+00  1.99558962e+00
  2.18342330e+00  2.23649603e+00  2.33209816e+00  2.39444712e+00
  2.39445466e+00  2.40392003e+00  2.40392034e+00  2.60159393e+00
  2.60159674e+00  2.68805696e+00  2.75841353e+00  2.86543186e+00
  2.86545417e+00  3.58463848e+00]
nelec by numeric integration = 42.000029405932736
    CPU time for vxc      5.54 sec, wall time      0.28 sec
E1 = -710.4282938076155  Ecoul = 311.3199239178411  Exc = -34.57404726674589
Extra cycle  E= -232.108010050688  delta_E= -7.96e-13  |g|= 1.16e-06  |ddm|= 1.65e-06
    CPU time for scf_cycle     61.68 sec, wall time      3.09 sec
    CPU time for SCF     61.69 sec, wall time      3.09 sec
converged SCF energy = -232.108010050688
